14
Energy: -377.71121926777
C	0.928795313344	0.933622547691	0.876615643971	
N	0.858517164755	-0.631009997748	0.644437679109	
O	1.124019224703	1.219489054098	2.042411998791	
N	-1.967094583196	0.916891013558	-1.288701002617	
H	-2.658961952162	1.644907771027	-1.100726848643	
H	1.317583127183	-1.138735638304	1.406500502043	
H	-2.025143935005	0.694620889478	-2.284295371775	
H	1.294124983071	-0.886602441071	-0.247626967926	
O	0.747073826723	1.551457330786	-0.165325774318	
H	-1.035216969406	1.312199473008	-1.10407958213	
H	-1.980769385208	-0.376761940365	-0.25565436949	
O	-1.773753267537	-1.112124655199	0.425339548967	
H	-0.180081711776	-0.911517134602	0.601657017895	
H	-2.247885931902	-0.872654360041	1.235888711727	
14
Energy: -377.705375795429
C	0.906444684009	0.868209734931	0.850873019866	
N	0.783181917953	-0.624816629896	0.663061908948	
O	1.145925351816	1.21941760537	2.000096822154	
N	-1.878586644936	0.875360910961	-1.226202705339	
H	-2.589666951199	1.581753128642	-1.021973501055	
H	1.226148291447	-1.131341559261	1.433001799051	
H	-1.970197787567	0.60431423471	-2.208225873134	
H	1.205831189251	-0.916443710241	-0.222678112873	
O	0.701877950135	1.509993760522	-0.191026680867	
H	-0.937475482323	1.285304948457	-1.06617647389	
H	-1.894726525825	-0.138936505059	-0.397283104692	
O	-1.671768982024	-1.019718864356	0.383029781418	
H	-0.450691121724	-0.8946201323	0.589432755574	
H	-2.172251172354	-0.874362847918	1.200611012249	
14
Energy: -377.719540788995
C	0.899755943371	0.912639846836	0.809841309325	
N	0.866274604461	-0.495211964485	0.526359030526	
O	1.357994786826	1.263645445439	1.896309578232	
N	-1.770325107432	0.78615070606	-1.212135287918	
H	-2.504258525001	1.500502951987	-1.182999596367	
H	1.501732858182	-1.028178068404	1.116911677896	
H	-1.676049843559	0.445772060027	-2.173887194234	
H	1.011228907155	-0.713475824787	-0.458884387218	
O	0.404346277348	1.651561456411	-0.094415888653	
H	-0.814344982964	1.190715680071	-0.83104708133	
H	-2.010691813567	-0.012779246297	-0.564554821787	
O	-1.823881698989	-1.200391956565	0.680087920923	
H	-0.837189888175	-1.069172373872	0.757341861435	
H	-2.197698596065	-0.88733137675	1.517713317422	
